# Region type : patch inlet
# Faces       : 460
# Area        : 1.000000e-04
# Scale factor: 1.000000e+00
# Time        	areaAverage(T)
0.00915751    	2.931500e+02
0.00995707    	2.931500e+02
0.0108546     	2.931500e+02
0.0118742     	2.931500e+02
0.0130391     	2.931500e+02
0.0143761     	2.931500e+02
0.0159173     	2.931500e+02
0.0177011     	2.931500e+02
0.0197762     	2.931500e+02
0.0222032     	2.931500e+02
0.0250607     	2.931500e+02
0.028452      	2.931500e+02
0.032517      	2.931500e+02
0.0373966     	2.931500e+02
0.0432557     	2.931500e+02
0.0502865     	2.931500e+02
0.0587187     	2.931500e+02
0.0678862     	2.931500e+02
0.0770537     	2.931500e+02
0.0862212     	2.931500e+02
0.0953887     	2.931500e+02
0.104556      	2.931500e+02
0.113724      	2.931500e+02
0.122891      	2.931500e+02
0.132059      	2.931500e+02
0.141226      	2.931500e+02
0.150394      	2.931500e+02
0.159561      	2.931500e+02
0.168729      	2.931500e+02
0.177896      	2.931500e+02
0.187064      	2.931500e+02
0.196231      	2.931500e+02
0.205399      	2.931500e+02
0.214566      	2.931500e+02
0.223734      	2.931500e+02
0.232901      	2.931500e+02
0.242069      	2.931500e+02
0.251236      	2.931500e+02
0.260404      	2.931500e+02
0.269571      	2.931500e+02
0.278739      	2.931500e+02
0.287906      	2.931500e+02
0.297074      	2.931500e+02
0.306241      	2.931500e+02
0.315409      	2.931500e+02
0.324576      	2.931500e+02
0.333744      	2.931500e+02
0.342911      	2.931500e+02
0.352079      	2.931500e+02
0.361246      	2.931500e+02
0.370414      	2.931500e+02
0.379581      	2.931500e+02
0.388749      	2.931500e+02
0.397916      	2.931500e+02
0.407084      	2.931500e+02
0.416251      	2.931500e+02
0.425419      	2.931500e+02
0.434586      	2.931500e+02
0.443754      	2.931500e+02
0.452921      	2.931500e+02
0.462089      	2.931500e+02
0.471256      	2.931500e+02
0.480424      	2.931500e+02
0.489591      	2.931500e+02
0.498759      	2.931500e+02
0.507926      	2.931500e+02
0.517094      	2.931500e+02
0.526261      	2.931500e+02
0.535429      	2.931500e+02
0.544596      	2.931500e+02
0.553764      	2.931500e+02
0.562931      	2.931500e+02
0.572099      	2.931500e+02
0.581266      	2.931500e+02
0.590434      	2.931500e+02
0.599601      	2.931500e+02
0.608769      	2.931500e+02
0.617936      	2.931500e+02
0.627104      	2.931500e+02
0.636271      	2.931500e+02
0.645439      	2.931500e+02
0.654606      	2.931500e+02
0.663774      	2.931500e+02
0.672941      	2.931500e+02
0.682109      	2.931500e+02
0.691276      	2.931500e+02
0.700444      	2.931500e+02
0.709611      	2.931500e+02
0.718779      	2.931500e+02
0.727946      	2.931500e+02
0.737114      	2.931500e+02
0.746281      	2.931500e+02
0.755449      	2.931500e+02
0.764616      	2.931500e+02
0.773784      	2.931500e+02
0.782951      	2.931500e+02
0.792119      	2.931500e+02
0.801286      	2.931500e+02
0.810454      	2.931500e+02
0.819621      	2.931500e+02
0.828789      	2.931500e+02
0.837956      	2.931500e+02
0.847124      	2.931500e+02
0.856291      	2.931500e+02
0.865459      	2.931500e+02
0.874626      	2.931500e+02
0.883794      	2.931500e+02
0.892961      	2.931500e+02
0.902129      	2.931500e+02
0.911296      	2.931500e+02
0.920464      	2.931500e+02
0.929631      	2.931500e+02
0.938799      	2.931500e+02
0.947966      	2.931500e+02
0.957134      	2.931500e+02
0.966301      	2.931500e+02
0.975469      	2.931500e+02
0.984636      	2.931500e+02
0.993804      	2.931500e+02
1.00297       	2.931500e+02
1.01214       	2.931500e+02
1.02131       	2.931500e+02
1.03047       	2.931500e+02
1.03964       	2.931500e+02
1.04881       	2.931500e+02
1.05798       	2.931500e+02
1.06714       	2.931500e+02
1.07631       	2.931500e+02
1.08548       	2.931500e+02
1.09465       	2.931500e+02
1.10381       	2.931500e+02
1.11298       	2.931500e+02
1.12215       	2.931500e+02
1.13132       	2.931500e+02
1.14048       	2.931500e+02
1.14965       	2.931500e+02
1.15882       	2.931500e+02
1.16799       	2.931500e+02
1.17715       	2.931500e+02
1.18632       	2.931500e+02
1.19549       	2.931500e+02
1.20466       	2.931500e+02
1.21382       	2.931500e+02
1.22299       	2.931500e+02
1.23216       	2.931500e+02
1.24133       	2.931500e+02
1.25049       	2.931500e+02
1.25966       	2.931500e+02
1.26883       	2.931500e+02
1.278         	2.931500e+02
1.28716       	2.931500e+02
1.29633       	2.931500e+02
1.3055        	2.931500e+02
1.31467       	2.931500e+02
1.32383       	2.931500e+02
1.333         	2.931500e+02
1.34217       	2.931500e+02
1.35134       	2.931500e+02
1.3605        	2.931500e+02
1.36967       	2.931500e+02
1.37884       	2.931500e+02
1.38801       	2.931500e+02
1.39717       	2.931500e+02
1.40634       	2.931500e+02
1.41551       	2.931500e+02
1.42468       	2.931500e+02
1.43384       	2.931500e+02
1.44301       	2.931500e+02
1.45218       	2.931500e+02
1.46135       	2.931500e+02
1.47051       	2.931500e+02
1.47968       	2.931500e+02
1.48885       	2.931500e+02
1.49802       	2.931500e+02
1.50718       	2.931500e+02
1.51635       	2.931500e+02
1.52552       	2.931500e+02
1.53469       	2.931500e+02
1.54385       	2.931500e+02
1.55302       	2.931500e+02
1.56219       	2.931500e+02
1.57136       	2.931500e+02
1.58052       	2.931500e+02
1.58969       	2.931500e+02
1.59886       	2.931500e+02
1.60803       	2.931500e+02
1.61719       	2.931500e+02
1.62636       	2.931500e+02
1.63553       	2.931500e+02
1.6447        	2.931500e+02
1.65386       	2.931500e+02
1.66303       	2.931500e+02
1.6722        	2.931500e+02
1.68137       	2.931500e+02
1.69053       	2.931500e+02
1.6997        	2.931500e+02
1.70887       	2.931500e+02
1.71804       	2.931500e+02
1.7272        	2.931500e+02
1.73637       	2.931500e+02
1.74554       	2.931500e+02
1.75471       	2.931500e+02
1.76387       	2.931500e+02
1.77304       	2.931500e+02
1.78221       	2.931500e+02
1.79138       	2.931500e+02
1.80054       	2.931500e+02
1.80971       	2.931500e+02
1.81888       	2.931500e+02
1.82805       	2.931500e+02
1.83721       	2.931500e+02
1.84638       	2.931500e+02
1.85555       	2.931500e+02
1.86472       	2.931500e+02
1.87388       	2.931500e+02
1.88305       	2.931500e+02
1.89222       	2.931500e+02
1.90139       	2.931500e+02
1.91055       	2.931500e+02
1.91972       	2.931500e+02
1.92889       	2.931500e+02
1.93806       	2.931500e+02
1.94722       	2.931500e+02
1.95639       	2.931500e+02
1.96556       	2.931500e+02
1.97473       	2.931500e+02
1.98389       	2.931500e+02
1.99306       	2.931500e+02
2.00223       	2.931500e+02
2.0114        	2.931500e+02
2.02056       	2.931500e+02
2.02973       	2.931500e+02
2.0389        	2.931500e+02
2.04807       	2.931500e+02
2.05723       	2.931500e+02
2.0664        	2.931500e+02
2.07557       	2.931500e+02
2.08474       	2.931500e+02
2.0939        	2.931500e+02
2.10307       	2.931500e+02
2.11224       	2.931500e+02
2.12141       	2.931500e+02
2.13057       	2.931500e+02
2.13974       	2.931500e+02
2.14891       	2.931500e+02
2.15808       	2.931500e+02
2.16724       	2.931500e+02
2.17641       	2.931500e+02
2.18558       	2.931500e+02
2.19475       	2.931500e+02
2.20391       	2.931500e+02
2.21308       	2.931500e+02
2.22225       	2.931500e+02
2.23142       	2.931500e+02
2.24058       	2.931500e+02
2.24975       	2.931500e+02
2.25892       	2.931500e+02
2.26809       	2.931500e+02
2.27725       	2.931500e+02
2.28642       	2.931500e+02
2.29559       	2.931500e+02
2.30476       	2.931500e+02
2.31392       	2.931500e+02
2.32309       	2.931500e+02
2.33226       	2.931500e+02
2.34143       	2.931500e+02
2.35059       	2.931500e+02
2.35976       	2.931500e+02
2.36893       	2.931500e+02
2.3781        	2.931500e+02
2.38726       	2.931500e+02
2.39643       	2.931500e+02
2.4056        	2.931500e+02
2.41477       	2.931500e+02
2.42393       	2.931500e+02
2.4331        	2.931500e+02
2.44227       	2.931500e+02
2.45144       	2.931500e+02
2.4606        	2.931500e+02
2.46977       	2.931500e+02
2.47894       	2.931500e+02
2.48811       	2.931500e+02
2.49727       	2.931500e+02
2.50644       	2.931500e+02
2.51561       	2.931500e+02
2.52478       	2.931500e+02
2.53394       	2.931500e+02
2.54311       	2.931500e+02
2.55228       	2.931500e+02
2.56145       	2.931500e+02
2.57061       	2.931500e+02
2.57978       	2.931500e+02
2.58895       	2.931500e+02
2.59812       	2.931500e+02
2.60728       	2.931500e+02
2.61645       	2.931500e+02
2.62562       	2.931500e+02
2.63479       	2.931500e+02
2.64395       	2.931500e+02
2.65312       	2.931500e+02
2.66229       	2.931500e+02
2.67146       	2.931500e+02
2.68062       	2.931500e+02
2.68979       	2.931500e+02
2.69896       	2.931500e+02
2.70813       	2.931500e+02
2.71729       	2.931500e+02
2.72646       	2.931500e+02
2.73563       	2.931500e+02
2.7448        	2.931500e+02
2.75396       	2.931500e+02
2.76313       	2.931500e+02
2.7723        	2.931500e+02
2.78147       	2.931500e+02
2.79063       	2.931500e+02
2.7998        	2.931500e+02
2.80897       	2.931500e+02
2.81814       	2.931500e+02
2.8273        	2.931500e+02
2.83647       	2.931500e+02
2.84564       	2.931500e+02
2.85481       	2.931500e+02
2.86397       	2.931500e+02
2.87314       	2.931500e+02
2.88231       	2.931500e+02
2.89148       	2.931500e+02
2.90064       	2.931500e+02
2.90981       	2.931500e+02
2.91898       	2.931500e+02
2.92815       	2.931500e+02
2.93731       	2.931500e+02
2.94648       	2.931500e+02
2.95565       	2.931500e+02
2.96482       	2.931500e+02
2.97398       	2.931500e+02
2.98315       	2.931500e+02
2.99232       	2.931500e+02
3.00149       	2.931500e+02
3.01065       	2.931500e+02
3.01982       	2.931500e+02
3.02899       	2.931500e+02
3.03816       	2.931500e+02
3.04732       	2.931500e+02
3.05649       	2.931500e+02
3.06566       	2.931500e+02
3.07483       	2.931500e+02
3.08399       	2.931500e+02
3.09316       	2.931500e+02
3.10233       	2.931500e+02
3.1115        	2.931500e+02
3.12066       	2.931500e+02
3.12983       	2.931500e+02
3.139         	2.931500e+02
3.14817       	2.931500e+02
3.15733       	2.931500e+02
3.1665        	2.931500e+02
3.17567       	2.931500e+02
3.18484       	2.931500e+02
3.194         	2.931500e+02
3.20317       	2.931500e+02
3.21234       	2.931500e+02
3.22151       	2.931500e+02
3.23067       	2.931500e+02
3.23984       	2.931500e+02
3.24901       	2.931500e+02
3.25818       	2.931500e+02
3.26734       	2.931500e+02
3.27651       	2.931500e+02
3.28568       	2.931500e+02
3.29485       	2.931500e+02
3.30401       	2.931500e+02
3.31318       	2.931500e+02
3.32235       	2.931500e+02
3.33152       	2.931500e+02
3.34068       	2.931500e+02
3.34985       	2.931500e+02
3.35902       	2.931500e+02
3.36819       	2.931500e+02
3.37735       	2.931500e+02
3.38652       	2.931500e+02
3.39569       	2.931500e+02
3.40486       	2.931500e+02
3.41402       	2.931500e+02
3.42319       	2.931500e+02
3.43236       	2.931500e+02
3.44153       	2.931500e+02
3.45069       	2.931500e+02
3.45986       	2.931500e+02
3.46903       	2.931500e+02
3.4782        	2.931500e+02
3.48736       	2.931500e+02
3.49653       	2.931500e+02
3.5057        	2.931500e+02
3.51487       	2.931500e+02
3.52403       	2.931500e+02
3.5332        	2.931500e+02
3.54237       	2.931500e+02
3.55154       	2.931500e+02
3.5607        	2.931500e+02
3.56987       	2.931500e+02
3.57904       	2.931500e+02
3.58821       	2.931500e+02
3.59737       	2.931500e+02
3.60654       	2.931500e+02
3.61571       	2.931500e+02
3.62488       	2.931500e+02
3.63404       	2.931500e+02
3.64321       	2.931500e+02
3.65238       	2.931500e+02
3.66155       	2.931500e+02
3.67071       	2.931500e+02
3.67988       	2.931500e+02
3.68905       	2.931500e+02
3.69822       	2.931500e+02
3.70738       	2.931500e+02
3.71655       	2.931500e+02
3.72572       	2.931500e+02
3.73489       	2.931500e+02
3.74405       	2.931500e+02
3.75322       	2.931500e+02
3.76239       	2.931500e+02
3.77156       	2.931500e+02
3.78072       	2.931500e+02
3.78989       	2.931500e+02
3.79906       	2.931500e+02
3.80823       	2.931500e+02
3.81739       	2.931500e+02
3.82656       	2.931500e+02
3.83573       	2.931500e+02
3.8449        	2.931500e+02
3.85406       	2.931500e+02
3.86323       	2.931500e+02
3.8724        	2.931500e+02
3.88157       	2.931500e+02
3.89073       	2.931500e+02
3.8999        	2.931500e+02
3.90907       	2.931500e+02
3.91824       	2.931500e+02
3.9274        	2.931500e+02
3.93657       	2.931500e+02
3.94574       	2.931500e+02
3.95491       	2.931500e+02
3.96407       	2.931500e+02
3.97324       	2.931500e+02
3.98241       	2.931500e+02
3.99158       	2.931500e+02
4.00074       	2.931500e+02
4.00991       	2.931500e+02
4.01908       	2.931500e+02
4.02825       	2.931500e+02
4.03741       	2.931500e+02
4.04658       	2.931500e+02
4.05575       	2.931500e+02
4.06492       	2.931500e+02
4.07408       	2.931500e+02
4.08325       	2.931500e+02
4.09242       	2.931500e+02
4.10159       	2.931500e+02
4.11075       	2.931500e+02
4.11992       	2.931500e+02
4.12909       	2.931500e+02
4.13826       	2.931500e+02
4.14742       	2.931500e+02
4.15659       	2.931500e+02
4.16576       	2.931500e+02
4.17493       	2.931500e+02
4.18409       	2.931500e+02
4.19326       	2.931500e+02
4.20243       	2.931500e+02
4.2116        	2.931500e+02
4.22076       	2.931500e+02
4.22993       	2.931500e+02
4.2391        	2.931500e+02
4.24827       	2.931500e+02
4.25743       	2.931500e+02
4.2666        	2.931500e+02
4.27577       	2.931500e+02
4.28494       	2.931500e+02
4.2941        	2.931500e+02
4.30327       	2.931500e+02
4.31244       	2.931500e+02
4.32161       	2.931500e+02
4.33077       	2.931500e+02
4.33994       	2.931500e+02
4.34911       	2.931500e+02
4.35828       	2.931500e+02
4.36744       	2.931500e+02
4.37661       	2.931500e+02
4.38578       	2.931500e+02
4.39495       	2.931500e+02
4.40411       	2.931500e+02
4.41328       	2.931500e+02
4.42245       	2.931500e+02
4.43162       	2.931500e+02
4.44078       	2.931500e+02
4.44995       	2.931500e+02
4.45912       	2.931500e+02
4.46829       	2.931500e+02
4.47745       	2.931500e+02
4.48662       	2.931500e+02
4.49579       	2.931500e+02
4.50496       	2.931500e+02
4.51412       	2.931500e+02
4.52329       	2.931500e+02
4.53246       	2.931500e+02
4.54163       	2.931500e+02
4.55079       	2.931500e+02
4.55996       	2.931500e+02
4.56913       	2.931500e+02
4.5783        	2.931500e+02
4.58746       	2.931500e+02
4.59663       	2.931500e+02
4.6058        	2.931500e+02
4.61497       	2.931500e+02
4.62413       	2.931500e+02
4.6333        	2.931500e+02
4.64247       	2.931500e+02
4.65164       	2.931500e+02
4.6608        	2.931500e+02
4.66997       	2.931500e+02
4.67914       	2.931500e+02
4.68831       	2.931500e+02
4.69747       	2.931500e+02
4.70664       	2.931500e+02
4.71581       	2.931500e+02
4.72498       	2.931500e+02
4.73414       	2.931500e+02
4.74331       	2.931500e+02
4.75248       	2.931500e+02
4.76165       	2.931500e+02
4.77081       	2.931500e+02
4.77998       	2.931500e+02
4.78915       	2.931500e+02
4.79832       	2.931500e+02
4.80748       	2.931500e+02
4.81665       	2.931500e+02
4.82582       	2.931500e+02
4.83499       	2.931500e+02
4.84415       	2.931500e+02
4.85332       	2.931500e+02
4.86249       	2.931500e+02
4.87166       	2.931500e+02
4.88082       	2.931500e+02
4.88999       	2.931500e+02
4.89916       	2.931500e+02
4.90833       	2.931500e+02
4.91749       	2.931500e+02
4.92666       	2.931500e+02
4.93583       	2.931500e+02
4.945         	2.931500e+02
4.95416       	2.931500e+02
4.96333       	2.931500e+02
4.9725        	2.931500e+02
4.98167       	2.931500e+02
4.99083       	2.931500e+02
5             	2.931500e+02
5.00916       	2.931500e+02
5.01832       	2.931500e+02
5.02747       	2.931500e+02
5.03663       	2.931500e+02
5.04579       	2.931500e+02
5.05495       	2.931500e+02
5.0641        	2.931500e+02
5.07326       	2.931500e+02
5.08242       	2.931500e+02
5.09158       	2.931500e+02
5.10073       	2.931500e+02
5.10989       	2.931500e+02
5.11905       	2.931500e+02
5.12821       	2.931500e+02
5.13736       	2.931500e+02
5.14652       	2.931500e+02
5.15568       	2.931500e+02
5.16484       	2.931500e+02
5.17399       	2.931500e+02
5.18315       	2.931500e+02
5.19231       	2.931500e+02
5.20147       	2.931500e+02
5.21062       	2.931500e+02
5.21978       	2.931500e+02
5.22894       	2.931500e+02
5.2381        	2.931500e+02
5.24725       	2.931500e+02
5.25641       	2.931500e+02
5.26557       	2.931500e+02
5.27473       	2.931500e+02
5.28388       	2.931500e+02
5.29304       	2.931500e+02
5.3022        	2.931500e+02
5.31136       	2.931500e+02
5.32051       	2.931500e+02
5.32967       	2.931500e+02
5.33883       	2.931500e+02
5.34799       	2.931500e+02
5.35714       	2.931500e+02
5.3663        	2.931500e+02
5.37546       	2.931500e+02
5.38462       	2.931500e+02
5.39377       	2.931500e+02
5.40293       	2.931500e+02
5.41209       	2.931500e+02
5.42125       	2.931500e+02
5.4304        	2.931500e+02
5.43956       	2.931500e+02
5.44872       	2.931500e+02
5.45788       	2.931500e+02
5.46703       	2.931500e+02
5.47619       	2.931500e+02
5.48535       	2.931500e+02
5.49451       	2.931500e+02
5.50366       	2.931500e+02
5.51282       	2.931500e+02
5.52198       	2.931500e+02
5.53114       	2.931500e+02
5.54029       	2.931500e+02
5.54945       	2.931500e+02
5.55861       	2.931500e+02
5.56777       	2.931500e+02
5.57692       	2.931500e+02
5.58608       	2.931500e+02
5.59524       	2.931500e+02
5.6044        	2.931500e+02
5.61355       	2.931500e+02
5.62271       	2.931500e+02
5.63187       	2.931500e+02
5.64103       	2.931500e+02
5.65018       	2.931500e+02
5.65934       	2.931500e+02
5.6685        	2.931500e+02
5.67766       	2.931500e+02
5.68681       	2.931500e+02
5.69597       	2.931500e+02
5.70513       	2.931500e+02
5.71429       	2.931500e+02
5.72344       	2.931500e+02
5.7326        	2.931500e+02
5.74176       	2.931500e+02
5.75092       	2.931500e+02
5.76007       	2.931500e+02
5.76923       	2.931500e+02
5.77839       	2.931500e+02
5.78755       	2.931500e+02
5.7967        	2.931500e+02
5.80586       	2.931500e+02
5.81502       	2.931500e+02
5.82418       	2.931500e+02
5.83333       	2.931500e+02
5.84249       	2.931500e+02
5.85165       	2.931500e+02
5.86081       	2.931500e+02
5.86996       	2.931500e+02
5.87912       	2.931500e+02
5.88828       	2.931500e+02
5.89744       	2.931500e+02
5.90659       	2.931500e+02
5.91575       	2.931500e+02
5.92491       	2.931500e+02
5.93407       	2.931500e+02
5.94322       	2.931500e+02
5.95238       	2.931500e+02
5.96154       	2.931500e+02
5.9707        	2.931500e+02
5.97985       	2.931500e+02
5.98901       	2.931500e+02
5.99817       	2.931500e+02
6.00733       	2.931500e+02
6.01648       	2.931500e+02
6.02564       	2.931500e+02
6.0348        	2.931500e+02
6.04396       	2.931500e+02
6.05311       	2.931500e+02
6.06227       	2.931500e+02
6.07143       	2.931500e+02
6.08059       	2.931500e+02
6.08974       	2.931500e+02
6.0989        	2.931500e+02
6.10806       	2.931500e+02
6.11722       	2.931500e+02
6.12637       	2.931500e+02
6.13553       	2.931500e+02
6.14469       	2.931500e+02
6.15385       	2.931500e+02
6.163         	2.931500e+02
6.17216       	2.931500e+02
6.18132       	2.931500e+02
6.19048       	2.931500e+02
6.19963       	2.931500e+02
6.20879       	2.931500e+02
6.21795       	2.931500e+02
6.22711       	2.931500e+02
6.23626       	2.931500e+02
6.24542       	2.931500e+02
6.25458       	2.931500e+02
6.26374       	2.931500e+02
6.27289       	2.931500e+02
6.28205       	2.931500e+02
6.29121       	2.931500e+02
6.30037       	2.931500e+02
6.30952       	2.931500e+02
6.31868       	2.931500e+02
6.32784       	2.931500e+02
6.337         	2.931500e+02
6.34615       	2.931500e+02
6.35531       	2.931500e+02
6.36447       	2.931500e+02
6.37363       	2.931500e+02
6.38278       	2.931500e+02
6.39194       	2.931500e+02
6.4011        	2.931500e+02
6.41026       	2.931500e+02
6.41941       	2.931500e+02
6.42857       	2.931500e+02
6.43773       	2.931500e+02
6.44689       	2.931500e+02
6.45604       	2.931500e+02
6.4652        	2.931500e+02
6.47436       	2.931500e+02
6.48352       	2.931500e+02
6.49267       	2.931500e+02
6.50183       	2.931500e+02
6.51099       	2.931500e+02
6.52015       	2.931500e+02
6.5293        	2.931500e+02
6.53846       	2.931500e+02
6.54762       	2.931500e+02
6.55678       	2.931500e+02
6.56593       	2.931500e+02
6.57509       	2.931500e+02
6.58425       	2.931500e+02
6.59341       	2.931500e+02
6.60256       	2.931500e+02
6.61172       	2.931500e+02
6.62088       	2.931500e+02
6.63004       	2.931500e+02
6.63919       	2.931500e+02
6.64835       	2.931500e+02
6.65751       	2.931500e+02
6.66667       	2.931500e+02
6.67582       	2.931500e+02
6.68498       	2.931500e+02
6.69414       	2.931500e+02
6.7033        	2.931500e+02
6.71245       	2.931500e+02
6.72161       	2.931500e+02
6.73077       	2.931500e+02
6.73993       	2.931500e+02
6.74908       	2.931500e+02
6.75824       	2.931500e+02
6.7674        	2.931500e+02
6.77656       	2.931500e+02
6.78571       	2.931500e+02
6.79487       	2.931500e+02
6.80403       	2.931500e+02
6.81319       	2.931500e+02
6.82234       	2.931500e+02
6.8315        	2.931500e+02
6.84066       	2.931500e+02
6.84982       	2.931500e+02
6.85897       	2.931500e+02
6.86813       	2.931500e+02
6.87729       	2.931500e+02
6.88645       	2.931500e+02
6.8956        	2.931500e+02
6.90476       	2.931500e+02
6.91392       	2.931500e+02
6.92308       	2.931500e+02
6.93223       	2.931500e+02
6.94139       	2.931500e+02
6.95055       	2.931500e+02
6.95971       	2.931500e+02
6.96886       	2.931500e+02
6.97802       	2.931500e+02
6.98718       	2.931500e+02
6.99634       	2.931500e+02
7.00549       	2.931500e+02
7.01465       	2.931500e+02
7.02381       	2.931500e+02
7.03297       	2.931500e+02
7.04212       	2.931500e+02
7.05128       	2.931500e+02
7.06044       	2.931500e+02
7.0696        	2.931500e+02
7.07875       	2.931500e+02
7.08791       	2.931500e+02
7.09707       	2.931500e+02
7.10623       	2.931500e+02
7.11538       	2.931500e+02
7.12454       	2.931500e+02
7.1337        	2.931500e+02
7.14286       	2.931500e+02
7.15201       	2.931500e+02
7.16117       	2.931500e+02
7.17033       	2.931500e+02
7.17949       	2.931500e+02
7.18864       	2.931500e+02
7.1978        	2.931500e+02
7.20696       	2.931500e+02
7.21612       	2.931500e+02
7.22527       	2.931500e+02
7.23443       	2.931500e+02
7.24359       	2.931500e+02
7.25275       	2.931500e+02
7.2619        	2.931500e+02
7.27106       	2.931500e+02
7.28022       	2.931500e+02
7.28938       	2.931500e+02
7.29853       	2.931500e+02
7.30769       	2.931500e+02
7.31685       	2.931500e+02
7.32601       	2.931500e+02
7.33516       	2.931500e+02
7.34432       	2.931500e+02
7.35348       	2.931500e+02
7.36264       	2.931500e+02
7.37179       	2.931500e+02
7.38095       	2.931500e+02
7.39011       	2.931500e+02
7.39927       	2.931500e+02
7.40842       	2.931500e+02
7.41758       	2.931500e+02
7.42674       	2.931500e+02
7.4359        	2.931500e+02
7.44505       	2.931500e+02
7.45421       	2.931500e+02
7.46337       	2.931500e+02
7.47253       	2.931500e+02
7.48168       	2.931500e+02
7.49084       	2.931500e+02
7.5           	2.931500e+02
7.50916       	2.931500e+02
7.51832       	2.931500e+02
7.52747       	2.931500e+02
7.53663       	2.931500e+02
7.54579       	2.931500e+02
7.55495       	2.931500e+02
7.5641        	2.931500e+02
7.57326       	2.931500e+02
7.58242       	2.931500e+02
7.59158       	2.931500e+02
7.60073       	2.931500e+02
7.60989       	2.931500e+02
7.61905       	2.931500e+02
7.62821       	2.931500e+02
7.63736       	2.931500e+02
7.64652       	2.931500e+02
7.65568       	2.931500e+02
7.66484       	2.931500e+02
7.67399       	2.931500e+02
7.68315       	2.931500e+02
7.69231       	2.931500e+02
7.70147       	2.931500e+02
7.71062       	2.931500e+02
7.71978       	2.931500e+02
7.72894       	2.931500e+02
7.7381        	2.931500e+02
7.74725       	2.931500e+02
7.75641       	2.931500e+02
7.76557       	2.931500e+02
7.77473       	2.931500e+02
7.78388       	2.931500e+02
7.79304       	2.931500e+02
7.8022        	2.931500e+02
7.81136       	2.931500e+02
7.82051       	2.931500e+02
7.82967       	2.931500e+02
7.83883       	2.931500e+02
7.84799       	2.931500e+02
7.85714       	2.931500e+02
7.8663        	2.931500e+02
7.87546       	2.931500e+02
7.88462       	2.931500e+02
7.89377       	2.931500e+02
7.90293       	2.931500e+02
7.91209       	2.931500e+02
7.92125       	2.931500e+02
7.9304        	2.931500e+02
7.93956       	2.931500e+02
7.94872       	2.931500e+02
7.95788       	2.931500e+02
7.96703       	2.931500e+02
7.97619       	2.931500e+02
7.98535       	2.931500e+02
7.99451       	2.931500e+02
8.00366       	2.931500e+02
8.01282       	2.931500e+02
8.02198       	2.931500e+02
8.03114       	2.931500e+02
8.04029       	2.931500e+02
8.04945       	2.931500e+02
8.05861       	2.931500e+02
8.06777       	2.931500e+02
8.07692       	2.931500e+02
8.08608       	2.931500e+02
8.09524       	2.931500e+02
8.1044        	2.931500e+02
8.11355       	2.931500e+02
8.12271       	2.931500e+02
8.13187       	2.931500e+02
8.14103       	2.931500e+02
8.15018       	2.931500e+02
8.15934       	2.931500e+02
8.1685        	2.931500e+02
8.17766       	2.931500e+02
8.18681       	2.931500e+02
8.19597       	2.931500e+02
8.20513       	2.931500e+02
8.21429       	2.931500e+02
8.22344       	2.931500e+02
8.2326        	2.931500e+02
8.24176       	2.931500e+02
8.25092       	2.931500e+02
8.26007       	2.931500e+02
8.26923       	2.931500e+02
8.27839       	2.931500e+02
8.28755       	2.931500e+02
8.2967        	2.931500e+02
8.30586       	2.931500e+02
8.31502       	2.931500e+02
8.32418       	2.931500e+02
8.33333       	2.931500e+02
8.34249       	2.931500e+02
8.35165       	2.931500e+02
8.36081       	2.931500e+02
8.36996       	2.931500e+02
8.37912       	2.931500e+02
8.38828       	2.931500e+02
8.39744       	2.931500e+02
8.40659       	2.931500e+02
8.41575       	2.931500e+02
8.42491       	2.931500e+02
8.43407       	2.931500e+02
8.44322       	2.931500e+02
8.45238       	2.931500e+02
8.46154       	2.931500e+02
8.4707        	2.931500e+02
8.47985       	2.931500e+02
8.48901       	2.931500e+02
8.49817       	2.931500e+02
8.50733       	2.931500e+02
8.51648       	2.931500e+02
8.52564       	2.931500e+02
8.5348        	2.931500e+02
8.54396       	2.931500e+02
8.55311       	2.931500e+02
8.56227       	2.931500e+02
8.57143       	2.931500e+02
8.58059       	2.931500e+02
8.58974       	2.931500e+02
8.5989        	2.931500e+02
8.60806       	2.931500e+02
8.61722       	2.931500e+02
8.62637       	2.931500e+02
8.63553       	2.931500e+02
8.64469       	2.931500e+02
8.65385       	2.931500e+02
8.663         	2.931500e+02
8.67216       	2.931500e+02
8.68132       	2.931500e+02
8.69048       	2.931500e+02
8.69963       	2.931500e+02
8.70879       	2.931500e+02
8.71795       	2.931500e+02
8.72711       	2.931500e+02
8.73626       	2.931500e+02
8.74542       	2.931500e+02
8.75458       	2.931500e+02
8.76374       	2.931500e+02
8.77289       	2.931500e+02
8.78205       	2.931500e+02
8.79121       	2.931500e+02
8.80037       	2.931500e+02
8.80952       	2.931500e+02
8.81868       	2.931500e+02
8.82784       	2.931500e+02
8.837         	2.931500e+02
8.84615       	2.931500e+02
8.85531       	2.931500e+02
8.86447       	2.931500e+02
8.87363       	2.931500e+02
8.88278       	2.931500e+02
8.89194       	2.931500e+02
8.9011        	2.931500e+02
8.91026       	2.931500e+02
8.91941       	2.931500e+02
8.92857       	2.931500e+02
8.93773       	2.931500e+02
8.94689       	2.931500e+02
8.95604       	2.931500e+02
8.9652        	2.931500e+02
8.97436       	2.931500e+02
8.98352       	2.931500e+02
8.99267       	2.931500e+02
9.00183       	2.931500e+02
9.01099       	2.931500e+02
9.02015       	2.931500e+02
9.0293        	2.931500e+02
9.03846       	2.931500e+02
9.04762       	2.931500e+02
9.05678       	2.931500e+02
9.06593       	2.931500e+02
9.07509       	2.931500e+02
9.08425       	2.931500e+02
9.09341       	2.931500e+02
9.10256       	2.931500e+02
9.11172       	2.931500e+02
9.12088       	2.931500e+02
9.13004       	2.931500e+02
9.13919       	2.931500e+02
9.14835       	2.931500e+02
9.15751       	2.931500e+02
9.16667       	2.931500e+02
9.17582       	2.931500e+02
9.18498       	2.931500e+02
9.19414       	2.931500e+02
9.2033        	2.931500e+02
9.21245       	2.931500e+02
9.22161       	2.931500e+02
9.23077       	2.931500e+02
9.23993       	2.931500e+02
9.24908       	2.931500e+02
9.25824       	2.931500e+02
9.2674        	2.931500e+02
9.27656       	2.931500e+02
9.28571       	2.931500e+02
9.29487       	2.931500e+02
9.30403       	2.931500e+02
9.31319       	2.931500e+02
9.32234       	2.931500e+02
9.3315        	2.931500e+02
9.34066       	2.931500e+02
9.34982       	2.931500e+02
9.35897       	2.931500e+02
9.36813       	2.931500e+02
9.37729       	2.931500e+02
9.38645       	2.931500e+02
9.3956        	2.931500e+02
9.40476       	2.931500e+02
9.41392       	2.931500e+02
9.42308       	2.931500e+02
9.43223       	2.931500e+02
9.44139       	2.931500e+02
9.45055       	2.931500e+02
9.45971       	2.931500e+02
9.46886       	2.931500e+02
9.47802       	2.931500e+02
9.48718       	2.931500e+02
9.49634       	2.931500e+02
9.50549       	2.931500e+02
9.51465       	2.931500e+02
9.52381       	2.931500e+02
9.53297       	2.931500e+02
9.54212       	2.931500e+02
9.55128       	2.931500e+02
9.56044       	2.931500e+02
9.5696        	2.931500e+02
9.57875       	2.931500e+02
9.58791       	2.931500e+02
9.59707       	2.931500e+02
9.60623       	2.931500e+02
9.61538       	2.931500e+02
9.62454       	2.931500e+02
9.6337        	2.931500e+02
9.64286       	2.931500e+02
9.65201       	2.931500e+02
9.66117       	2.931500e+02
9.67033       	2.931500e+02