# Probe 0 (0.005 0.005 0.009)  # Not Found
# Probe 1 (0.005 0.005 0.007)
# Probe 2 (0.005 0.005 0.005)
# Probe 3 (0.005 0.005 0.003)
# Probe 4 (0.005 0.005 0.001)  # Not Found
# Time        0             1             2             3             4            
0.361246      -1e+300       283.163       283.162       283.162       -1e+300      
0.819621      -1e+300       283.163       283.162       283.162       -1e+300      
1.278         -1e+300       283.163       283.162       283.162       -1e+300      
1.73637       -1e+300       283.162       283.162       283.162       -1e+300      
2.19475       -1e+300       283.162       283.162       283.162       -1e+300      
2.65312       -1e+300       283.162       283.162       283.161       -1e+300      
3.1115        -1e+300       283.162       283.161       283.161       -1e+300      
3.56987       -1e+300       283.162       283.161       283.161       -1e+300      
4.02825       -1e+300       283.162       283.161       283.161       -1e+300      
4.48662       -1e+300       283.161       283.161       283.161       -1e+300      
4.945         -1e+300       283.161       283.161       283.16        -1e+300      
5.40293       -1e+300       283.161       283.16        283.16        -1e+300      
5.86081       -1e+300       283.161       283.16        283.16        -1e+300      
6.31868       -1e+300       283.161       283.16        283.16        -1e+300      
6.77656       -1e+300       283.16        283.16        283.16        -1e+300      
7.23443       -1e+300       283.16        283.16        283.159       -1e+300      
7.69231       -1e+300       283.16        283.159       283.159       -1e+300      
8.15018       -1e+300       283.16        283.159       283.159       -1e+300      
8.60806       -1e+300       283.16        283.159       283.159       -1e+300      
9.06593       -1e+300       283.159       283.159       283.159       -1e+300      
9.52381       -1e+300       283.159       283.159       283.159       -1e+300      
9.98168       -1e+300       283.159       283.158       283.158       -1e+300      
10.4396       -1e+300       283.159       283.158       283.158       -1e+300      
10.8974       -1e+300       283.159       283.158       283.158       -1e+300      
11.3553       -1e+300       283.158       283.158       283.158       -1e+300      
11.8132       -1e+300       283.158       283.158       283.158       -1e+300      
12.2711       -1e+300       283.158       283.158       283.157       -1e+300      
12.7289       -1e+300       283.158       283.157       283.157       -1e+300      
13.1868       -1e+300       283.158       283.157       283.157       -1e+300      
13.6447       -1e+300       283.158       283.157       283.157       -1e+300      
14.1026       -1e+300       283.157       283.157       283.157       -1e+300      
14.5604       -1e+300       283.157       283.157       283.156       -1e+300      
15.0183       -1e+300       283.157       283.156       283.156       -1e+300      
15.4762       -1e+300       283.157       283.156       283.156       -1e+300      
15.9341       -1e+300       283.157       283.156       283.156       -1e+300      
16.3919       -1e+300       283.156       283.156       283.156       -1e+300      
16.8498       -1e+300       283.156       283.156       283.156       -1e+300      
17.3077       -1e+300       283.156       283.156       283.155       -1e+300      
17.7656       -1e+300       283.156       283.155       283.155       -1e+300      
18.2234       -1e+300       283.156       283.155       283.155       -1e+300      
18.6813       -1e+300       283.156       283.155       283.155       -1e+300      
19.1392       -1e+300       283.155       283.155       283.155       -1e+300      
19.5971       -1e+300       283.155       283.155       283.154       -1e+300      
20.0549       -1e+300       283.155       283.154       283.154       -1e+300      
20.5128       -1e+300       283.155       283.154       283.154       -1e+300      
20.9707       -1e+300       283.155       283.154       283.154       -1e+300      
21.4286       -1e+300       283.154       283.154       283.154       -1e+300      
21.8864       -1e+300       283.154       283.154       283.154       -1e+300      
22.3443       -1e+300       283.154       283.154       283.153       -1e+300      
22.8022       -1e+300       283.154       283.153       283.153       -1e+300      
23.2601       -1e+300       283.154       283.153       283.153       -1e+300      
23.7179       -1e+300       283.154       283.153       283.153       -1e+300      
24.1758       -1e+300       283.153       283.153       283.153       -1e+300      
24.6337       -1e+300       283.153       283.153       283.152       -1e+300      
25.0916       -1e+300       283.153       283.152       283.152       -1e+300      
25.5495       -1e+300       283.153       283.152       283.152       -1e+300      
26.0073       -1e+300       283.153       283.152       283.152       -1e+300      
26.4652       -1e+300       283.152       283.152       283.152       -1e+300      
26.9231       -1e+300       283.152       283.152       283.152       -1e+300      
27.381        -1e+300       283.152       283.152       283.151       -1e+300      
27.8388       -1e+300       283.152       283.151       283.151       -1e+300      
28.2967       -1e+300       283.152       283.151       283.151       -1e+300      
28.7546       -1e+300       283.152       283.151       283.151       -1e+300      
29.2125       -1e+300       283.151       283.151       283.151       -1e+300      
29.6703       -1e+300       283.151       283.151       283.151       -1e+300      
