# Probe 0 (0.005 0.005 0.009)  # Not Found
# Probe 1 (0.005 0.005 0.007)
# Probe 2 (0.005 0.005 0.005)
# Probe 3 (0.005 0.005 0.003)
# Probe 4 (0.005 0.005 0.001)  # Not Found
# Time        0             1             2             3             4            
0.0454545     -1e+300       283.157       283.156       283.157       -1e+300      
0.0909091     -1e+300       283.16        283.159       283.159       -1e+300      
