# Solver information
# Time        	U_solver      	Ux_initial    	Ux_final      	Ux_iters      	Uy_initial    	Uy_final      	Uy_iters      	Uz_initial    	Uz_final      	Uz_iters      	U_converged   	h_solver      	h_initial     	h_final       	h_iters       	h_converged   	p_rgh_solver  	p_rgh_initial 	p_rgh_final   	p_rgh_iters   	p_rgh_converged	rho_solver    	rho_initial   	rho_final     	rho_iters     	rho_converged 
0.00915751    	DILUPBiCGStab	1.000000e+00	5.838400e-08	7	1.000000e+00	4.345350e-08	7	1.000000e+00	7.558280e-08	7	false	DILUPBiCGStab	1.000000e+00	6.009880e-08	8	true	DICPCG	8.023340e-01	6.911460e-03	34	true	diagonal	0.000000e+00	0.000000e+00	0	true
0.00995707    	DILUPBiCGStab	8.991480e-02	4.858190e-08	3	5.062560e-02	9.355350e-08	3	6.771420e-02	3.998080e-08	3	false	DILUPBiCGStab	4.077260e-02	7.579810e-08	3	true	DICPCG	2.634900e-01	1.906200e-03	34	true	diagonal	0.000000e+00	0.000000e+00	0	true
0.0108546     	DILUPBiCGStab	9.320420e-02	3.719400e-08	3	8.093720e-02	3.735690e-08	3	6.121490e-02	4.229340e-08	3	false	DILUPBiCGStab	3.491610e-02	5.227350e-08	3	true	DICPCG	2.838180e-01	2.414350e-03	30	true	diagonal	0.000000e+00	0.000000e+00	0	true
0.0118742     	DILUPBiCGStab	7.836330e-02	4.693330e-08	3	7.100210e-02	4.265260e-08	3	5.690560e-02	5.692880e-08	3	false	DILUPBiCGStab	3.298150e-02	6.537440e-08	3	true	DICPCG	1.526670e-01	1.453480e-03	29	true	diagonal	0.000000e+00	0.000000e+00	0	true
0.0130391     	DILUPBiCGStab	7.564810e-02	7.125560e-08	3	7.241480e-02	6.767090e-08	3	5.770810e-02	9.619560e-08	3	false	DILUPBiCGStab	3.198800e-02	9.846130e-08	3	true	DICPCG	1.057110e-01	9.514150e-04	29	true	diagonal	0.000000e+00	0.000000e+00	0	true
0.0143761     	DILUPBiCGStab	7.531020e-02	9.866500e-09	3	7.502990e-02	1.281580e-08	3	6.004440e-02	2.523190e-08	3	false	DILUPBiCGStab	3.148920e-02	2.905640e-08	3	true	DICPCG	8.378590e-02	6.284410e-04	29	true	diagonal	0.000000e+00	0.000000e+00	0	true
0.0159173     	DILUPBiCGStab	7.599600e-02	1.698940e-08	3	7.897720e-02	2.483510e-08	3	6.346830e-02	4.782890e-08	3	false	DILUPBiCGStab	3.131180e-02	4.916260e-08	3	true	DICPCG	6.717170e-02	6.294270e-04	29	true	diagonal	0.000000e+00	0.000000e+00	0	true
0.0177011     	DILUPBiCGStab	7.799480e-02	3.377010e-08	3	8.469950e-02	5.101160e-08	3	6.815300e-02	9.095020e-08	3	false	DILUPBiCGStab	3.138300e-02	8.981140e-08	3	true	DICPCG	5.871750e-02	5.520200e-04	28	true	diagonal	0.000000e+00	0.000000e+00	0	true
0.0197762     	DILUPBiCGStab	8.081160e-02	7.328410e-08	3	9.211320e-02	1.285360e-08	4	7.389160e-02	2.138880e-08	4	false	DILUPBiCGStab	3.167760e-02	2.766100e-08	4	true	DICPCG	5.361770e-02	5.347100e-04	15	true	diagonal	0.000000e+00	0.000000e+00	0	true
0.0222032     	DILUPBiCGStab	8.395450e-02	2.201640e-08	4	1.016590e-01	2.789670e-08	4	8.108300e-02	4.909600e-08	4	false	DILUPBiCGStab	3.216050e-02	6.431430e-08	4	true	DICPCG	5.147190e-02	4.760480e-04	14	true	diagonal	0.000000e+00	0.000000e+00	0	true
0.0250607     	DILUPBiCGStab	8.645950e-02	5.658030e-08	4	1.129670e-01	7.133720e-08	4	9.028200e-02	7.908190e-09	4	false	DILUPBiCGStab	3.281890e-02	3.656800e-08	4	true	DICPCG	5.140430e-02	4.677530e-04	14	true	diagonal	0.000000e+00	0.000000e+00	0	true
0.028452      	DILUPBiCGStab	8.811540e-02	3.036400e-08	4	1.263960e-01	4.278130e-08	4	1.023740e-01	2.315650e-08	4	false	DILUPBiCGStab	3.364150e-02	9.422400e-08	4	true	DICPCG	5.314360e-02	5.171800e-04	14	true	diagonal	0.000000e+00	0.000000e+00	0	true
0.032517      	DILUPBiCGStab	8.822310e-02	7.405560e-08	4	1.428220e-01	2.519220e-08	5	1.191590e-01	7.441990e-08	4	false	DILUPBiCGStab	3.459650e-02	7.324850e-08	5	true	DICPCG	5.617290e-02	4.929080e-04	15	true	diagonal	0.000000e+00	0.000000e+00	0	true
0.0373966     	DILUPBiCGStab	8.581950e-02	5.243340e-08	5	1.621450e-01	6.935980e-08	5	1.398720e-01	5.522580e-08	5	false	DILUPBiCGStab	3.538870e-02	7.387360e-08	5	true	DICPCG	5.969390e-02	5.888730e-04	25	true	diagonal	0.000000e+00	0.000000e+00	0	true
0.0432557     	DILUPBiCGStab	8.073170e-02	6.351850e-08	5	1.854330e-01	5.332350e-08	5	1.560570e-01	6.526370e-08	5	false	DILUPBiCGStab	3.592700e-02	2.031400e-08	6	true	DICPCG	6.349370e-02	6.017570e-04	25	true	diagonal	0.000000e+00	0.000000e+00	0	true
0.0502865     	DILUPBiCGStab	7.516810e-02	2.127980e-08	6	2.110800e-01	2.774460e-08	6	1.457360e-01	2.681900e-08	6	false	DILUPBiCGStab	3.619940e-02	3.543920e-08	6	true	DICPCG	6.652300e-02	5.811820e-04	25	true	diagonal	0.000000e+00	0.000000e+00	0	true
0.0587187     	DILUPBiCGStab	7.120660e-02	3.427480e-08	6	2.386470e-01	8.505630e-08	6	1.317280e-01	6.340600e-08	6	false	DILUPBiCGStab	3.620910e-02	5.332900e-08	6	true	DICPCG	7.008710e-02	6.493540e-04	25	true	diagonal	0.000000e+00	0.000000e+00	0	true
0.0678862     	DILUPBiCGStab	6.054390e-02	3.231330e-08	6	2.311510e-01	4.396760e-08	6	1.071770e-01	7.181610e-08	6	false	DILUPBiCGStab	3.421030e-02	6.068540e-08	6	true	DICPCG	6.321960e-02	5.829990e-04	27	true	diagonal	0.000000e+00	0.000000e+00	0	true
0.0770537     	DILUPBiCGStab	4.894550e-02	8.511750e-08	5	2.032850e-01	8.092080e-08	6	8.346050e-02	4.141860e-08	6	false	DILUPBiCGStab	3.088510e-02	5.309550e-08	6	true	DICPCG	5.377000e-02	3.972230e-04	31	true	diagonal	0.000000e+00	0.000000e+00	0	true
0.0862212     	DILUPBiCGStab	4.131050e-02	7.185040e-08	5	1.840610e-01	6.441370e-08	6	6.922150e-02	2.740990e-08	6	false	DILUPBiCGStab	2.790510e-02	4.779100e-08	6	true	DICPCG	4.844220e-02	4.032780e-04	31	true	diagonal	0.000000e+00	0.000000e+00	0	true
0.0953887     	DILUPBiCGStab	3.577930e-02	5.843040e-08	5	1.683140e-01	5.234300e-08	6	5.910400e-02	8.414370e-08	5	false	DILUPBiCGStab	2.529050e-02	4.367400e-08	6	true	DICPCG	4.258040e-02	3.825200e-04	31	true	diagonal	0.000000e+00	0.000000e+00	0	true
0.104556      	DILUPBiCGStab	3.165960e-02	4.948600e-08	5	1.571640e-01	4.517370e-08	6	5.229500e-02	7.027990e-08	5	false	DILUPBiCGStab	2.297430e-02	4.036050e-08	6	true	DICPCG	3.837180e-02	3.616240e-04	31	true	diagonal	0.000000e+00	0.000000e+00	0	true
0.113724      	DILUPBiCGStab	2.824350e-02	4.250740e-08	5	1.483890e-01	3.987030e-08	6	4.720080e-02	6.095550e-08	5	false	DILUPBiCGStab	2.091080e-02	3.756680e-08	6	true	DICPCG	3.468160e-02	3.378060e-04	31	true	diagonal	0.000000e+00	0.000000e+00	0	true
0.122891      	DILUPBiCGStab	2.536250e-02	3.719560e-08	5	1.406800e-01	3.594600e-08	6	4.307970e-02	5.429540e-08	5	false	DILUPBiCGStab	1.905600e-02	3.512530e-08	6	true	DICPCG	3.140750e-02	3.139900e-04	31	true	diagonal	0.000000e+00	0.000000e+00	0	true
0.132059      	DILUPBiCGStab	2.288360e-02	8.853020e-08	5	1.333150e-01	3.295230e-08	6	3.963720e-02	4.879030e-08	5	false	DILUPBiCGStab	1.737520e-02	3.295620e-08	6	true	DICPCG	2.855020e-02	2.295470e-04	32	true	diagonal	0.000000e+00	0.000000e+00	0	true
0.141226      	DILUPBiCGStab	2.067260e-02	7.830580e-08	5	1.260020e-01	3.042410e-08	6	3.646770e-02	4.413050e-08	5	false	DILUPBiCGStab	1.584840e-02	3.098880e-08	6	true	DICPCG	2.590520e-02	2.156420e-04	32	true	diagonal	0.000000e+00	0.000000e+00	0	true
0.150394      	DILUPBiCGStab	1.873830e-02	6.936610e-08	5	1.188990e-01	2.827970e-08	6	3.370280e-02	9.871300e-08	5	false	DILUPBiCGStab	1.445910e-02	2.916630e-08	6	true	DICPCG	2.354500e-02	2.024840e-04	32	true	diagonal	0.000000e+00	0.000000e+00	0	true
0.159561      	DILUPBiCGStab	1.701270e-02	6.152390e-08	5	1.119280e-01	9.501180e-08	5	3.118780e-02	8.975830e-08	5	false	DILUPBiCGStab	1.319470e-02	2.745650e-08	6	true	DICPCG	2.143210e-02	1.900150e-04	32	true	diagonal	0.000000e+00	0.000000e+00	0	true
0.168729      	DILUPBiCGStab	1.549010e-02	5.336400e-08	5	1.051580e-01	8.899030e-08	5	2.893590e-02	8.250720e-08	5	false	DILUPBiCGStab	1.204330e-02	2.583220e-08	6	true	DICPCG	1.961320e-02	1.792780e-04	32	true	diagonal	0.000000e+00	0.000000e+00	0	true
0.177896      	DILUPBiCGStab	1.407450e-02	4.950910e-08	5	9.876810e-02	8.379830e-08	5	2.674240e-02	7.459240e-08	5	false	DILUPBiCGStab	1.099410e-02	2.427360e-08	6	true	DICPCG	1.776950e-02	1.669600e-04	32	true	diagonal	0.000000e+00	0.000000e+00	0	true
0.187064      	DILUPBiCGStab	1.281330e-02	4.438380e-08	5	9.225330e-02	7.802690e-08	5	2.467480e-02	6.778590e-08	5	false	DILUPBiCGStab	1.003730e-02	2.277760e-08	6	true	DICPCG	1.620490e-02	1.562300e-04	32	true	diagonal	0.000000e+00	0.000000e+00	0	true
0.196231      	DILUPBiCGStab	1.166550e-02	3.998400e-08	5	8.604860e-02	7.270220e-08	5	2.275740e-02	6.165600e-08	5	false	DILUPBiCGStab	9.164590e-03	2.133500e-08	6	true	DICPCG	1.477340e-02	1.460350e-04	32	true	diagonal	0.000000e+00	0.000000e+00	0	true
0.205399      	DILUPBiCGStab	1.062790e-02	3.608230e-08	5	8.010340e-02	6.761020e-08	5	2.097030e-02	5.607690e-08	5	false	DILUPBiCGStab	8.368020e-03	1.994530e-08	6	true	DICPCG	1.347710e-02	1.326610e-04	33	true	diagonal	0.000000e+00	0.000000e+00	0	true
0.214566      	DILUPBiCGStab	9.665460e-03	3.226850e-08	5	7.447390e-02	6.274260e-08	5	1.930630e-02	5.093650e-08	5	false	DILUPBiCGStab	7.640690e-03	1.860910e-08	6	true	DICPCG	1.229350e-02	9.997070e-05	34	true	diagonal	0.000000e+00	0.000000e+00	0	true
0.223734      	DILUPBiCGStab	8.840090e-03	9.045860e-08	4	6.922760e-02	5.808140e-08	5	1.786900e-02	4.589950e-08	5	false	DILUPBiCGStab	6.976710e-03	1.732940e-08	6	true	DICPCG	1.136470e-02	9.255110e-05	34	true	diagonal	0.000000e+00	0.000000e+00	0	true
0.232901      	DILUPBiCGStab	8.086290e-03	7.845240e-08	4	6.423300e-02	5.353290e-08	5	1.642880e-02	4.108670e-08	5	false	DILUPBiCGStab	6.370730e-03	1.610800e-08	6	true	DICPCG	1.042840e-02	8.564450e-05	34	true	diagonal	0.000000e+00	0.000000e+00	0	true
0.242069      	DILUPBiCGStab	7.343640e-03	8.251670e-08	4	5.932860e-02	4.946390e-08	5	1.495200e-02	3.752960e-08	5	false	DILUPBiCGStab	5.817350e-03	1.494610e-08	6	true	DICPCG	9.340020e-03	7.829770e-05	34	true	diagonal	0.000000e+00	0.000000e+00	0	true
0.251236      	DILUPBiCGStab	6.712720e-03	6.930990e-08	4	5.478920e-02	4.562020e-08	5	1.377400e-02	3.386590e-08	5	false	DILUPBiCGStab	5.311760e-03	9.267400e-08	5	true	DICPCG	8.625570e-03	7.204720e-05	34	true	diagonal	0.000000e+00	0.000000e+00	0	true
0.260404      	DILUPBiCGStab	6.164800e-03	5.567740e-08	4	5.067260e-02	4.190010e-08	5	1.268750e-02	3.037970e-08	5	false	DILUPBiCGStab	4.850120e-03	8.553290e-08	5	true	DICPCG	7.988420e-03	6.674690e-05	34	true	diagonal	0.000000e+00	0.000000e+00	0	true
0.269571      	DILUPBiCGStab	5.600220e-03	6.324740e-08	4	4.660430e-02	3.868960e-08	5	1.153760e-02	9.734780e-08	4	false	DILUPBiCGStab	4.428700e-03	7.885840e-08	5	true	DICPCG	7.098120e-03	6.073390e-05	34	true	diagonal	0.000000e+00	0.000000e+00	0	true
0.278739      	DILUPBiCGStab	5.102100e-03	5.805270e-08	4	4.284370e-02	3.581790e-08	5	1.053680e-02	8.850260e-08	4	false	DILUPBiCGStab	4.043880e-03	7.264800e-08	5	true	DICPCG	6.469610e-03	5.572260e-05	34	true	diagonal	0.000000e+00	0.000000e+00	0	true
0.287906      	DILUPBiCGStab	4.653730e-03	5.296970e-08	4	3.939900e-02	9.448780e-08	5	9.644450e-03	8.061130e-08	4	false	DILUPBiCGStab	3.692520e-03	6.687220e-08	5	true	DICPCG	5.903580e-03	5.096820e-05	34	true	diagonal	0.000000e+00	0.000000e+00	0	true
0.297074      	DILUPBiCGStab	4.249000e-03	4.817760e-08	4	3.623830e-02	8.712240e-08	5	8.836630e-03	7.342190e-08	4	false	DILUPBiCGStab	3.371750e-03	6.150590e-08	5	true	DICPCG	5.393320e-03	4.671810e-05	34	true	diagonal	0.000000e+00	0.000000e+00	0	true
0.306241      	DILUPBiCGStab	3.880940e-03	4.388520e-08	4	3.331580e-02	8.017920e-08	5	8.098630e-03	6.690640e-08	4	false	DILUPBiCGStab	3.078820e-03	5.652390e-08	5	true	DICPCG	4.927210e-03	4.275340e-05	34	true	diagonal	0.000000e+00	0.000000e+00	0	true
0.315409      	DILUPBiCGStab	3.545580e-03	4.000810e-08	4	3.061340e-02	7.375040e-08	5	7.420110e-03	6.096320e-08	4	false	DILUPBiCGStab	2.811250e-03	5.190600e-08	5	true	DICPCG	4.501230e-03	3.916300e-05	34	true	diagonal	0.000000e+00	0.000000e+00	0	true
0.324576      	DILUPBiCGStab	3.240060e-03	9.465450e-08	4	2.811430e-02	6.778870e-08	5	6.795810e-03	5.556620e-08	4	false	DILUPBiCGStab	2.566870e-03	4.763410e-08	5	true	DICPCG	4.112220e-03	3.561660e-05	34	true	diagonal	0.000000e+00	0.000000e+00	0	true
0.333744      	DILUPBiCGStab	3.028810e-03	7.651720e-08	4	2.596200e-02	6.279690e-08	5	6.348770e-03	5.590210e-08	4	false	DILUPBiCGStab	2.343630e-03	4.368820e-08	5	true	DICPCG	3.978630e-03	3.357670e-05	34	true	diagonal	0.000000e+00	0.000000e+00	0	true
0.342911      	DILUPBiCGStab	2.738280e-03	8.321560e-08	4	2.392270e-02	5.817370e-08	5	5.771540e-03	4.698960e-08	4	false	DILUPBiCGStab	2.139800e-03	4.002450e-08	5	true	DICPCG	3.449710e-03	3.001860e-05	34	true	diagonal	0.000000e+00	0.000000e+00	0	true
0.352079      	DILUPBiCGStab	2.494030e-03	7.474740e-08	4	2.179180e-02	5.292520e-08	5	5.234900e-03	4.209640e-08	4	false	DILUPBiCGStab	1.953340e-03	3.667160e-08	5	true	DICPCG	3.142590e-03	2.754980e-05	34	true	diagonal	0.000000e+00	0.000000e+00	0	true
0.361246      	DILUPBiCGStab	2.272230e-03	6.810210e-08	4	1.993460e-02	4.839900e-08	5	4.771870e-03	3.815610e-08	4	false	DILUPBiCGStab	1.783130e-03	3.358770e-08	5	true	DICPCG	2.861060e-03	2.506840e-05	34	true	diagonal	0.000000e+00	0.000000e+00	0	true
0.370414      	DILUPBiCGStab	2.074680e-03	6.171190e-08	4	1.824930e-02	4.433670e-08	5	4.354040e-03	3.465320e-08	4	false	DILUPBiCGStab	1.627750e-03	3.075010e-08	5	true	DICPCG	2.614940e-03	2.295490e-05	34	true	diagonal	0.000000e+00	0.000000e+00	0	true
0.379581      	DILUPBiCGStab	1.894950e-03	5.613360e-08	4	1.671170e-02	4.059690e-08	5	3.978040e-03	9.702330e-08	4	false	DILUPBiCGStab	1.485840e-03	2.814160e-08	5	true	DICPCG	2.388530e-03	2.096790e-05	34	true	diagonal	0.000000e+00	0.000000e+00	0	true
0.388749      	DILUPBiCGStab	1.731620e-03	5.112070e-08	4	1.530060e-02	3.715960e-08	5	3.636130e-03	8.835120e-08	4	false	DILUPBiCGStab	1.356250e-03	2.574540e-08	5	true	DICPCG	2.182480e-03	1.918070e-05	34	true	diagonal	0.000000e+00	0.000000e+00	0	true
0.397916      	DILUPBiCGStab	1.582640e-03	4.661910e-08	4	1.400670e-02	3.400350e-08	5	3.324590e-03	8.053720e-08	4	false	DILUPBiCGStab	1.237910e-03	2.354590e-08	5	true	DICPCG	1.994390e-03	1.754170e-05	34	true	diagonal	0.000000e+00	0.000000e+00	0	true
0.407084      	DILUPBiCGStab	1.446650e-03	4.253410e-08	4	1.281910e-02	3.110660e-08	5	3.039870e-03	7.343630e-08	4	false	DILUPBiCGStab	1.129890e-03	2.152890e-08	5	true	DICPCG	1.822540e-03	1.604430e-05	34	true	diagonal	0.000000e+00	0.000000e+00	0	true
0.416251      	DILUPBiCGStab	1.333810e-03	3.304950e-08	4	1.175950e-02	2.840530e-08	5	2.808850e-03	6.679270e-08	4	false	DILUPBiCGStab	1.031250e-03	9.234670e-08	5	true	DICPCG	1.693720e-03	1.473250e-05	34	true	diagonal	0.000000e+00	0.000000e+00	0	true
0.425419      	DILUPBiCGStab	1.209160e-03	3.515070e-08	4	1.076080e-02	9.964090e-08	4	2.545120e-03	6.069090e-08	4	false	DILUPBiCGStab	9.412010e-04	8.424210e-08	5	true	DICPCG	1.520970e-03	1.347400e-05	34	true	diagonal	0.000000e+00	0.000000e+00	0	true
0.434586      	DILUPBiCGStab	1.105160e-03	3.238240e-08	4	9.818350e-03	9.096650e-08	4	2.323200e-03	5.563430e-08	4	false	DILUPBiCGStab	8.590010e-04	7.685190e-08	5	true	DICPCG	1.389760e-03	1.228690e-05	34	true	diagonal	0.000000e+00	0.000000e+00	0	true
0.443754      	DILUPBiCGStab	1.010550e-03	2.961640e-08	4	8.977110e-03	8.329030e-08	4	2.122020e-03	5.067540e-08	4	false	DILUPBiCGStab	7.839740e-04	7.011060e-08	5	true	DICPCG	1.269610e-03	1.124600e-05	34	true	diagonal	0.000000e+00	0.000000e+00	0	true
0.452921      	DILUPBiCGStab	9.238920e-04	2.705010e-08	4	8.209090e-03	7.617390e-08	4	1.939520e-03	4.623180e-08	4	false	DILUPBiCGStab	7.154930e-04	6.395840e-08	5	true	DICPCG	1.160190e-03	1.028230e-05	34	true	diagonal	0.000000e+00	0.000000e+00	0	true
0.462089      	DILUPBiCGStab	8.447390e-04	2.471890e-08	4	7.506780e-03	6.968400e-08	4	1.772650e-03	4.216190e-08	4	false	DILUPBiCGStab	6.529870e-04	5.834570e-08	5	true	DICPCG	1.060110e-03	9.408610e-06	34	true	diagonal	0.000000e+00	0.000000e+00	0	true
0.471256      	DILUPBiCGStab	7.722760e-04	2.257670e-08	4	6.864040e-03	6.370430e-08	4	1.620200e-03	3.845910e-08	4	false	DILUPBiCGStab	5.959340e-04	5.322560e-08	5	true	DICPCG	9.686760e-04	8.602240e-06	34	true	diagonal	0.000000e+00	0.000000e+00	0	true
0.480424      	DILUPBiCGStab	7.060800e-04	2.063350e-08	4	6.275720e-03	5.824000e-08	4	1.480720e-03	3.508250e-08	4	false	DILUPBiCGStab	5.438630e-04	4.855500e-08	5	true	DICPCG	8.851030e-04	7.874790e-06	34	true	diagonal	0.000000e+00	0.000000e+00	0	true
0.489591      	DILUPBiCGStab	6.454980e-04	1.884810e-08	4	5.737470e-03	5.323210e-08	4	1.353170e-03	3.200040e-08	4	false	DILUPBiCGStab	4.963410e-04	4.429410e-08	5	true	DICPCG	8.087590e-04	7.201600e-06	34	true	diagonal	0.000000e+00	0.000000e+00	0	true
0.498759      	DILUPBiCGStab	5.901750e-04	1.722450e-08	4	5.245080e-03	4.865450e-08	4	1.236560e-03	2.919650e-08	4	false	DILUPBiCGStab	4.529740e-04	9.376820e-08	4	true	DICPCG	7.389720e-04	6.584200e-06	34	true	diagonal	0.000000e+00	0.000000e+00	0	true
0.507926      	DILUPBiCGStab	5.395710e-04	1.574440e-08	4	4.794280e-03	4.446400e-08	4	1.129890e-03	2.663290e-08	4	false	DILUPBiCGStab	4.134130e-04	8.558960e-08	4	true	DICPCG	6.752270e-04	6.020730e-06	34	true	diagonal	0.000000e+00	0.000000e+00	0	true
0.517094      	DILUPBiCGStab	4.931880e-04	9.689820e-08	3	4.382230e-03	4.062580e-08	4	1.032480e-03	2.429280e-08	4	false	DILUPBiCGStab	3.773020e-04	7.810400e-08	4	true	DICPCG	6.169210e-04	5.505740e-06	34	true	diagonal	0.000000e+00	0.000000e+00	0	true
0.526261      	DILUPBiCGStab	4.509310e-04	8.863010e-08	3	4.005260e-03	3.711770e-08	4	9.434200e-04	2.216480e-08	4	false	DILUPBiCGStab	3.443480e-04	7.126970e-08	4	true	DICPCG	5.637510e-04	5.034710e-06	34	true	diagonal	0.000000e+00	0.000000e+00	0	true
0.535429      	DILUPBiCGStab	4.121930e-04	8.096700e-08	3	3.660570e-03	3.390990e-08	4	8.620060e-04	2.022020e-08	4	false	DILUPBiCGStab	3.142750e-04	6.503270e-08	4	true	DICPCG	5.150760e-04	4.610460e-06	34	true	diagonal	0.000000e+00	0.000000e+00	0	true
0.544596      	DILUPBiCGStab	3.768490e-04	7.402410e-08	3	3.345330e-03	3.098270e-08	4	7.876080e-04	1.844990e-08	4	false	DILUPBiCGStab	2.868310e-04	5.934130e-08	4	true	DICPCG	4.706410e-04	4.214630e-06	34	true	diagonal	0.000000e+00	0.000000e+00	0	true
0.553764      	DILUPBiCGStab	3.444660e-04	6.762420e-08	3	3.057120e-03	2.830090e-08	4	7.196560e-04	1.683310e-08	4	false	DILUPBiCGStab	2.617870e-04	5.414750e-08	4	true	DICPCG	4.300270e-04	3.856760e-06	34	true	diagonal	0.000000e+00	0.000000e+00	0	true
0.562931      	DILUPBiCGStab	3.149100e-04	6.181580e-08	3	2.793730e-03	2.585210e-08	4	6.575290e-04	1.535840e-08	4	false	DILUPBiCGStab	2.389320e-04	4.940900e-08	4	true	DICPCG	3.929110e-04	3.524610e-06	34	true	diagonal	0.000000e+00	0.000000e+00	0	true
0.572099      	DILUPBiCGStab	2.878440e-04	5.648950e-08	3	2.552910e-03	9.343550e-08	4	6.007970e-04	1.400600e-08	4	false	DILUPBiCGStab	2.180750e-04	9.757320e-08	4	true	DICPCG	3.589670e-04	3.235230e-06	34	true	diagonal	0.000000e+00	0.000000e+00	0	true
0.581266      	DILUPBiCGStab	2.632340e-04	5.170950e-08	3	2.332400e-03	8.540370e-08	4	5.487790e-04	9.611650e-08	3	false	DILUPBiCGStab	1.990420e-04	8.902090e-08	4	true	DICPCG	3.279120e-04	2.954800e-06	34	true	diagonal	0.000000e+00	0.000000e+00	0	true
0.590434      	DILUPBiCGStab	2.404400e-04	4.710190e-08	3	2.131420e-03	7.796410e-08	4	5.015140e-04	8.773690e-08	3	false	DILUPBiCGStab	1.816780e-04	8.124910e-08	4	true	DICPCG	2.996270e-04	2.701430e-06	34	true	diagonal	0.000000e+00	0.000000e+00	0	true
0.599601      	DILUPBiCGStab	2.198310e-04	4.305350e-08	3	1.947300e-03	7.123590e-08	4	4.582200e-04	8.009680e-08	3	false	DILUPBiCGStab	1.658310e-04	7.415530e-08	4	true	DICPCG	2.738280e-04	2.466990e-06	34	true	diagonal	0.000000e+00	0.000000e+00	0	true
0.608769      	DILUPBiCGStab	2.008940e-04	3.931190e-08	3	1.779300e-03	6.507050e-08	4	4.186370e-04	7.306600e-08	3	false	DILUPBiCGStab	1.513660e-04	6.767950e-08	4	true	DICPCG	2.501630e-04	2.255280e-06	34	true	diagonal	0.000000e+00	0.000000e+00	0	true
0.617936      	DILUPBiCGStab	1.835030e-04	3.587430e-08	3	1.625760e-03	5.938410e-08	4	3.825400e-04	6.678990e-08	3	false	DILUPBiCGStab	1.381650e-04	6.176850e-08	4	true	DICPCG	2.285630e-04	2.085080e-06	34	true	diagonal	0.000000e+00	0.000000e+00	0	true
0.627104      	DILUPBiCGStab	1.674890e-04	3.262890e-08	3	1.486360e-03	5.433950e-08	4	3.493950e-04	6.074490e-08	3	false	DILUPBiCGStab	1.261170e-04	5.637350e-08	4	true	DICPCG	2.088660e-04	1.882480e-06	34	true	diagonal	0.000000e+00	0.000000e+00	0	true
0.636271      	DILUPBiCGStab	1.532970e-04	2.997090e-08	3	1.357320e-03	4.955650e-08	4	3.192780e-04	5.557150e-08	3	false	DILUPBiCGStab	1.151200e-04	5.144930e-08	4	true	DICPCG	1.908330e-04	1.723460e-06	34	true	diagonal	0.000000e+00	0.000000e+00	0	true
0.645439      	DILUPBiCGStab	1.400880e-04	2.735680e-08	3	1.239430e-03	4.520700e-08	4	2.917050e-04	5.068320e-08	3	false	DILUPBiCGStab	1.050840e-04	4.695520e-08	4	true	DICPCG	1.742980e-04	1.589440e-06	34	true	diagonal	0.000000e+00	0.000000e+00	0	true
0.654606      	DILUPBiCGStab	1.280250e-04	2.502470e-08	3	1.132500e-03	4.132690e-08	4	2.665240e-04	4.626000e-08	3	false	DILUPBiCGStab	9.592380e-05	4.285370e-08	4	true	DICPCG	1.592670e-04	1.427270e-06	34	true	diagonal	0.000000e+00	0.000000e+00	0	true
0.663774      	DILUPBiCGStab	1.170010e-04	2.282290e-08	3	1.034680e-03	3.772890e-08	4	2.434730e-04	4.221920e-08	3	false	DILUPBiCGStab	8.756400e-05	3.911080e-08	4	true	DICPCG	1.454910e-04	1.330950e-06	34	true	diagonal	0.000000e+00	0.000000e+00	0	true
0.672941      	DILUPBiCGStab	1.069820e-04	2.086060e-08	3	9.450970e-04	3.443570e-08	4	2.225440e-04	3.858220e-08	3	false	DILUPBiCGStab	7.993440e-05	3.569500e-08	4	true	DICPCG	1.329840e-04	1.241600e-06	34	true	diagonal	0.000000e+00	0.000000e+00	0	true
0.682109      	DILUPBiCGStab	9.780500e-05	1.912580e-08	3	8.634620e-04	3.139390e-08	4	2.033090e-04	3.517350e-08	3	false	DILUPBiCGStab	7.297120e-05	9.287680e-08	3	true	DICPCG	1.214670e-04	1.111270e-06	34	true	diagonal	0.000000e+00	0.000000e+00	0	true
0.691276      	DILUPBiCGStab	8.942950e-05	9.438170e-08	3	7.885650e-04	2.870770e-08	4	1.856990e-04	3.206810e-08	3	false	DILUPBiCGStab	6.662600e-05	8.485610e-08	3	true	DICPCG	1.109080e-04	1.024020e-06	34	true	diagonal	0.000000e+00	0.000000e+00	0	true
0.700444      	DILUPBiCGStab	8.160580e-05	8.593570e-08	3	7.205560e-04	2.618160e-08	4	1.696610e-04	2.928350e-08	3	false	DILUPBiCGStab	6.083500e-05	7.748530e-08	3	true	DICPCG	1.013380e-04	9.099030e-07	34	true	diagonal	0.000000e+00	0.000000e+00	0	true
0.709611      	DILUPBiCGStab	7.461540e-05	7.873620e-08	3	6.583390e-04	2.388110e-08	4	1.550800e-04	2.678380e-08	3	false	DILUPBiCGStab	5.554680e-05	7.074460e-08	3	true	DICPCG	9.259870e-05	8.724640e-07	34	true	diagonal	0.000000e+00	0.000000e+00	0	true
0.718779      	DILUPBiCGStab	6.824430e-05	7.206410e-08	3	6.014680e-04	2.182010e-08	4	1.416930e-04	2.443080e-08	3	false	DILUPBiCGStab	5.071870e-05	6.458770e-08	3	true	DICPCG	8.456780e-05	7.991110e-07	34	true	diagonal	0.000000e+00	0.000000e+00	0	true
0.727946      	DILUPBiCGStab	6.230880e-05	6.583180e-08	3	5.497080e-04	1.992640e-08	4	1.294770e-04	2.233820e-08	3	false	DILUPBiCGStab	4.631160e-05	5.896680e-08	3	true	DICPCG	7.729320e-05	7.296130e-07	34	true	diagonal	0.000000e+00	0.000000e+00	0	true
0.737114      	DILUPBiCGStab	5.695000e-05	6.009270e-08	3	5.022110e-04	9.996440e-08	3	1.183010e-04	9.685050e-08	3	false	DILUPBiCGStab	4.228900e-05	5.383650e-08	3	true	DICPCG	7.059790e-05	6.732880e-07	34	true	diagonal	0.000000e+00	0.000000e+00	0	true
0.746281      	DILUPBiCGStab	5.206490e-05	5.512490e-08	3	4.589240e-04	9.127670e-08	3	1.080920e-04	8.853040e-08	3	false	DILUPBiCGStab	3.861750e-05	4.915440e-08	3	true	DICPCG	6.450960e-05	6.176300e-07	34	true	diagonal	0.000000e+00	0.000000e+00	0	true
0.755449      	DILUPBiCGStab	4.760360e-05	5.034400e-08	3	4.193560e-04	8.339720e-08	3	9.878590e-05	8.084650e-08	3	false	DILUPBiCGStab	3.526670e-05	9.438930e-08	3	true	DICPCG	5.891730e-05	5.671040e-07	34	true	diagonal	0.000000e+00	0.000000e+00	0	true
0.764616      	DILUPBiCGStab	4.349550e-05	4.617080e-08	3	3.829080e-04	7.603910e-08	3	9.030390e-05	7.384260e-08	3	false	DILUPBiCGStab	3.220480e-05	8.591690e-08	3	true	DICPCG	5.383350e-05	5.190650e-07	34	true	diagonal	0.000000e+00	0.000000e+00	0	true
0.773784      	DILUPBiCGStab	3.972410e-05	4.209790e-08	3	3.500080e-04	6.972700e-08	3	8.252810e-05	6.746790e-08	3	false	DILUPBiCGStab	2.941920e-05	7.844790e-08	3	true	DICPCG	4.921610e-05	4.752780e-07	34	true	diagonal	0.000000e+00	0.000000e+00	0	true
0.782951      	DILUPBiCGStab	3.634350e-05	3.870090e-08	3	3.198490e-04	6.373790e-08	3	7.537870e-05	6.177590e-08	3	false	DILUPBiCGStab	2.687530e-05	7.163550e-08	3	true	DICPCG	4.504930e-05	4.306400e-07	34	true	diagonal	0.000000e+00	0.000000e+00	0	true
0.792119      	DILUPBiCGStab	3.326460e-05	3.549600e-08	3	2.924810e-04	5.798880e-08	3	6.890530e-05	5.629620e-08	3	false	DILUPBiCGStab	2.455290e-05	6.541680e-08	3	true	DICPCG	4.104180e-05	3.971640e-07	34	true	diagonal	0.000000e+00	0.000000e+00	0	true
0.801286      	DILUPBiCGStab	3.038670e-05	3.207380e-08	3	2.680450e-04	5.279200e-08	3	6.310520e-05	5.171350e-08	3	false	DILUPBiCGStab	2.243360e-05	5.974100e-08	3	true	DICPCG	3.764100e-05	3.725760e-07	34	true	diagonal	0.000000e+00	0.000000e+00	0	true
0.810454      	DILUPBiCGStab	2.784310e-05	2.962770e-08	3	2.447710e-04	4.820780e-08	3	5.763290e-05	4.713930e-08	3	false	DILUPBiCGStab	2.049860e-05	5.455990e-08	3	true	DICPCG	3.434830e-05	3.362290e-07	34	true	diagonal	0.000000e+00	0.000000e+00	0	true
0.819621      	DILUPBiCGStab	2.542150e-05	2.703260e-08	3	2.237630e-04	4.395910e-08	3	5.271440e-05	4.317680e-08	3	false	DILUPBiCGStab	1.873310e-05	4.983340e-08	3	true	DICPCG	3.140380e-05	3.068710e-07	34	true	diagonal	0.000000e+00	0.000000e+00	0	true
0.828789      	DILUPBiCGStab	2.331120e-05	2.500690e-08	3	2.047980e-04	4.040830e-08	3	4.827420e-05	3.948090e-08	3	false	DILUPBiCGStab	1.712200e-05	4.552020e-08	3	true	DICPCG	2.874660e-05	2.269130e-07	35	true	diagonal	0.000000e+00	0.000000e+00	0	true
0.837956      	DILUPBiCGStab	2.127000e-05	9.111890e-08	2	1.869750e-04	3.673890e-08	3	4.409910e-05	3.599620e-08	3	false	DILUPBiCGStab	1.565180e-05	4.158580e-08	3	true	DICPCG	2.620530e-05	2.046720e-07	35	true	diagonal	0.000000e+00	0.000000e+00	0	true
0.847124      	DILUPBiCGStab	1.951760e-05	8.518000e-08	2	1.709840e-04	3.366920e-08	3	4.030630e-05	3.330490e-08	3	false	DILUPBiCGStab	1.431020e-05	3.799670e-08	3	true	DICPCG	2.410240e-05	1.886860e-07	35	true	diagonal	0.000000e+00	0.000000e+00	0	true
0.856291      	DILUPBiCGStab	1.779160e-05	7.565560e-08	2	1.562450e-04	3.070300e-08	3	3.688700e-05	3.040080e-08	3	false	DILUPBiCGStab	1.308630e-05	3.472470e-08	3	true	DICPCG	2.196600e-05	1.740250e-07	35	true	diagonal	0.000000e+00	0.000000e+00	0	true
0.865459      	DILUPBiCGStab	1.632950e-05	7.083890e-08	2	1.429090e-04	9.817090e-08	3	3.371140e-05	2.777530e-08	3	false	DILUPBiCGStab	1.196950e-05	3.174000e-08	3	true	DICPCG	2.009250e-05	1.593310e-07	35	true	diagonal	0.000000e+00	0.000000e+00	0	true
0.874626      	DILUPBiCGStab	1.501490e-05	6.504570e-08	2	1.308040e-04	9.169380e-08	3	3.092900e-05	2.556670e-08	3	false	DILUPBiCGStab	1.095060e-05	2.901950e-08	3	true	DICPCG	1.844080e-05	1.468410e-07	35	true	diagonal	0.000000e+00	0.000000e+00	0	true
0.883794      	DILUPBiCGStab	1.370160e-05	5.916710e-08	2	1.196420e-04	8.344490e-08	3	2.826150e-05	2.339470e-08	3	false	DILUPBiCGStab	1.002110e-05	2.653930e-08	3	true	DICPCG	1.684400e-05	1.360580e-07	35	true	diagonal	0.000000e+00	0.000000e+00	0	true
0.892961      	DILUPBiCGStab	1.253120e-05	5.364450e-08	2	1.093820e-04	7.634420e-08	3	2.583890e-05	9.376920e-08	2	false	DILUPBiCGStab	9.173060e-06	2.427850e-08	3	true	DICPCG	1.538690e-05	1.235030e-07	35	true	diagonal	0.000000e+00	0.000000e+00	0	true
0.902129      	DILUPBiCGStab	1.155140e-05	4.913600e-08	2	1.003390e-04	7.091450e-08	3	2.377460e-05	8.570740e-08	2	false	DILUPBiCGStab	8.399440e-06	2.221820e-08	3	true	DICPCG	1.397580e-05	1.094460e-07	35	true	diagonal	0.000000e+00	0.000000e+00	0	true
0.911296      	DILUPBiCGStab	1.065240e-05	4.514010e-08	2	9.210560e-05	6.386210e-08	3	2.191920e-05	7.744280e-08	2	false	DILUPBiCGStab	7.693690e-06	2.034180e-08	3	true	DICPCG	1.283360e-05	9.831040e-08	35	true	diagonal	0.000000e+00	0.000000e+00	0	true
0.920464      	DILUPBiCGStab	9.865360e-06	4.307120e-08	2	8.393370e-05	5.874420e-08	3	1.996660e-05	7.184090e-08	2	false	DILUPBiCGStab	7.049850e-06	1.863240e-08	3	true	DICPCG	1.183820e-05	9.267920e-08	35	true	diagonal	0.000000e+00	0.000000e+00	0	true
0.929631      	DILUPBiCGStab	8.961350e-06	3.743120e-08	2	7.651230e-05	5.359730e-08	3	1.822460e-05	6.516110e-08	2	false	DILUPBiCGStab	6.462730e-06	1.707610e-08	3	true	DICPCG	1.074610e-05	8.362250e-08	35	true	diagonal	0.000000e+00	0.000000e+00	0	true
0.938799      	DILUPBiCGStab	8.262940e-06	3.533760e-08	2	6.999370e-05	4.911990e-08	3	1.667890e-05	5.990540e-08	2	false	DILUPBiCGStab	5.927070e-06	1.565980e-08	3	true	DICPCG	9.824670e-06	7.584160e-08	35	true	diagonal	0.000000e+00	0.000000e+00	0	true
0.947966      	DILUPBiCGStab	7.601460e-06	3.212000e-08	2	6.386150e-05	4.467570e-08	3	1.522010e-05	5.453450e-08	2	false	DILUPBiCGStab	5.438460e-06	1.437160e-08	3	true	DICPCG	9.012980e-06	9.145840e-08	34	true	diagonal	0.000000e+00	0.000000e+00	0	true
0.957134      	DILUPBiCGStab	6.998840e-06	2.956610e-08	2	5.857550e-05	4.110330e-08	3	1.396720e-05	5.013830e-08	2	false	DILUPBiCGStab	4.992740e-06	9.882150e-08	2	true	DICPCG	8.270050e-06	8.482090e-08	34	true	diagonal	0.000000e+00	0.000000e+00	0	true
0.966301      	DILUPBiCGStab	6.542050e-06	3.483990e-08	2	5.330000e-05	3.760780e-08	3	1.276800e-05	4.568950e-08	2	false	DILUPBiCGStab	4.602220e-06	9.217960e-08	2	true	DICPCG	7.497030e-06	7.495310e-08	34	true	diagonal	0.000000e+00	0.000000e+00	0	true
0.975469      	DILUPBiCGStab	5.809410e-06	9.613960e-08	2	4.907090e-05	3.448790e-08	3	1.168230e-05	4.105410e-08	2	false	DILUPBiCGStab	4.244280e-06	8.554660e-08	2	true	DICPCG	6.802050e-06	7.115610e-08	34	true	diagonal	0.000000e+00	0.000000e+00	0	true
0.984636      	DILUPBiCGStab	5.644730e-06	9.853690e-08	2	4.419920e-05	3.253910e-08	3	1.059820e-05	3.995240e-08	2	false	DILUPBiCGStab	3.912630e-06	7.925690e-08	2	true	DICPCG	6.474110e-06	9.747120e-08	33	true	diagonal	0.000000e+00	0.000000e+00	0	true